s 0.328718759 _6_ RTR  --- 0 message 32 [0 0 0 0] ------- [6:255 -1:255 32 0] 
s 0.329153759 _6_ MAC  --- 0 message 90 [0 ffffffff 6 800] ------- [6:255 -1:255 32 0] 
r 0.329874233 _4_ MAC  --- 0 message 32 [0 ffffffff 6 800] ------- [6:255 -1:255 32 0] 
r 0.329874432 _5_ MAC  --- 0 message 32 [0 ffffffff 6 800] ------- [6:255 -1:255 32 0] 
r 0.329874506 _3_ MAC  --- 0 message 32 [0 ffffffff 6 800] ------- [6:255 -1:255 32 0] 
r 0.329899233 _4_ RTR  --- 0 message 32 [0 ffffffff 6 800] ------- [6:255 -1:255 32 0] 
r 0.329899432 _5_ RTR  --- 0 message 32 [0 ffffffff 6 800] ------- [6:255 -1:255 32 0] 
r 0.329899506 _3_ RTR  --- 0 message 32 [0 ffffffff 6 800] ------- [6:255 -1:255 32 0] 
s 0.473440071 _2_ RTR  --- 1 message 32 [0 0 0 0] ------- [2:255 -1:255 32 0] 
s 0.473855071 _2_ MAC  --- 1 message 90 [0 ffffffff 2 800] ------- [2:255 -1:255 32 0] 
r 0.474575404 _3_ MAC  --- 1 message 32 [0 ffffffff 2 800] ------- [2:255 -1:255 32 0] 
r 0.474575674 _1_ MAC  --- 1 message 32 [0 ffffffff 2 800] ------- [2:255 -1:255 32 0] 
r 0.474575674 _0_ MAC  --- 1 message 32 [0 ffffffff 2 800] ------- [2:255 -1:255 32 0] 
r 0.474575738 _4_ MAC  --- 1 message 32 [0 ffffffff 2 800] ------- [2:255 -1:255 32 0] 
r 0.474600404 _3_ RTR  --- 1 message 32 [0 ffffffff 2 800] ------- [2:255 -1:255 32 0] 
r 0.474600674 _1_ RTR  --- 1 message 32 [0 ffffffff 2 800] ------- [2:255 -1:255 32 0] 
r 0.474600674 _0_ RTR  --- 1 message 32 [0 ffffffff 2 800] ------- [2:255 -1:255 32 0] 
r 0.474600738 _4_ RTR  --- 1 message 32 [0 ffffffff 2 800] ------- [2:255 -1:255 32 0] 
s 0.621645526 _4_ RTR  --- 2 message 32 [0 0 0 0] ------- [4:255 -1:255 32 0] 
s 0.621740526 _4_ MAC  --- 2 message 90 [0 ffffffff 4 800] ------- [4:255 -1:255 32 0] 
r 0.622460859 _3_ MAC  --- 2 message 32 [0 ffffffff 4 800] ------- [4:255 -1:255 32 0] 
r 0.622461000 _5_ MAC  --- 2 message 32 [0 ffffffff 4 800] ------- [4:255 -1:255 32 0] 
r 0.622461000 _6_ MAC  --- 2 message 32 [0 ffffffff 4 800] ------- [4:255 -1:255 32 0] 
r 0.622461193 _2_ MAC  --- 2 message 32 [0 ffffffff 4 800] ------- [4:255 -1:255 32 0] 
r 0.622485859 _3_ RTR  --- 2 message 32 [0 ffffffff 4 800] ------- [4:255 -1:255 32 0] 
r 0.622486000 _5_ RTR  --- 2 message 32 [0 ffffffff 4 800] ------- [4:255 -1:255 32 0] 
r 0.622486000 _6_ RTR  --- 2 message 32 [0 ffffffff 4 800] ------- [4:255 -1:255 32 0] 
r 0.622486193 _2_ RTR  --- 2 message 32 [0 ffffffff 4 800] ------- [4:255 -1:255 32 0] 
s 0.630584703 _0_ RTR  --- 3 message 32 [0 0 0 0] ------- [0:255 -1:255 32 0] 
s 0.631239703 _0_ MAC  --- 3 message 90 [0 ffffffff 0 800] ------- [0:255 -1:255 32 0] 
r 0.631960305 _2_ MAC  --- 3 message 32 [0 ffffffff 0 800] ------- [0:255 -1:255 32 0] 
r 0.631960376 _1_ MAC  --- 3 message 32 [0 ffffffff 0 800] ------- [0:255 -1:255 32 0] 
r 0.631985305 _2_ RTR  --- 3 message 32 [0 ffffffff 0 800] ------- [0:255 -1:255 32 0] 
r 0.631985376 _1_ RTR  --- 3 message 32 [0 ffffffff 0 800] ------- [0:255 -1:255 32 0] 
s 1.279901881 _3_ RTR  --- 4 message 32 [0 0 0 0] ------- [3:255 -1:255 32 0] 
s 1.280016881 _3_ MAC  --- 4 message 90 [0 ffffffff 3 800] ------- [3:255 -1:255 32 0] 
r 1.280737214 _2_ MAC  --- 4 message 32 [0 ffffffff 3 800] ------- [3:255 -1:255 32 0] 
r 1.280737214 _4_ MAC  --- 4 message 32 [0 ffffffff 3 800] ------- [3:255 -1:255 32 0] 
r 1.280737628 _5_ MAC  --- 4 message 32 [0 ffffffff 3 800] ------- [3:255 -1:255 32 0] 
r 1.280737628 _6_ MAC  --- 4 message 32 [0 ffffffff 3 800] ------- [3:255 -1:255 32 0] 
r 1.280762214 _2_ RTR  --- 4 message 32 [0 ffffffff 3 800] ------- [3:255 -1:255 32 0] 
r 1.280762214 _4_ RTR  --- 4 message 32 [0 ffffffff 3 800] ------- [3:255 -1:255 32 0] 
r 1.280762628 _5_ RTR  --- 4 message 32 [0 ffffffff 3 800] ------- [3:255 -1:255 32 0] 
r 1.280762628 _6_ RTR  --- 4 message 32 [0 ffffffff 3 800] ------- [3:255 -1:255 32 0] 
s 1.640574422 _1_ RTR  --- 5 message 32 [0 0 0 0] ------- [1:255 -1:255 32 0] 
s 1.640729422 _1_ MAC  --- 5 message 90 [0 ffffffff 1 800] ------- [1:255 -1:255 32 0] 
r 1.641450025 _2_ MAC  --- 5 message 32 [0 ffffffff 1 800] ------- [1:255 -1:255 32 0] 
r 1.641450095 _0_ MAC  --- 5 message 32 [0 ffffffff 1 800] ------- [1:255 -1:255 32 0] 
r 1.641475025 _2_ RTR  --- 5 message 32 [0 ffffffff 1 800] ------- [1:255 -1:255 32 0] 
r 1.641475095 _0_ RTR  --- 5 message 32 [0 ffffffff 1 800] ------- [1:255 -1:255 32 0] 
s 1.676689149 _5_ RTR  --- 6 message 32 [0 0 0 0] ------- [5:255 -1:255 32 0] 
s 1.677284149 _5_ MAC  --- 6 message 90 [0 ffffffff 5 800] ------- [5:255 -1:255 32 0] 
r 1.678004623 _4_ MAC  --- 6 message 32 [0 ffffffff 5 800] ------- [5:255 -1:255 32 0] 
r 1.678004822 _6_ MAC  --- 6 message 32 [0 ffffffff 5 800] ------- [5:255 -1:255 32 0] 
r 1.678004896 _3_ MAC  --- 6 message 32 [0 ffffffff 5 800] ------- [5:255 -1:255 32 0] 
r 1.678029623 _4_ RTR  --- 6 message 32 [0 ffffffff 5 800] ------- [5:255 -1:255 32 0] 
r 1.678029822 _6_ RTR  --- 6 message 32 [0 ffffffff 5 800] ------- [5:255 -1:255 32 0] 
r 1.678029896 _3_ RTR  --- 6 message 32 [0 ffffffff 5 800] ------- [5:255 -1:255 32 0] 
M 3.00000 0 (5.00, 2.00, 0.00), (5.00, 2.00), 0.00
M 3.00000 1 (5.00, 204.00, 0.00), (5.00, 204.00), 0.00
M 3.00000 2 (155.00, 103.00, 0.00), (105.00, 103.00), 0.00
M 3.00000 3 (255.00, 103.00, 0.00), (155.00, 103.00), 0.00
M 3.00000 4 (355.00, 103.00, 0.00), (205.00, 103.00), 0.00
M 3.00000 5 (455.00, 2.00, 0.00), (305.00, 2.00), 0.00
M 3.00000 6 (455.00, 204.00, 0.00), (305.00, 204.00), 0.00
s 3.000000000 _0_ AGT  --- 7 tcp 40 [0 0 0 0] ------- [0:0 2:0 32 0] [0 0] 0 0
r 3.000000000 _0_ RTR  --- 7 tcp 40 [0 0 0 0] ------- [0:0 2:0 32 0] [0 0] 0 0
s 3.000000000 _0_ RTR  --- 7 tcp 60 [0 0 0 0] ------- [0:0 2:0 32 2] [0 0] 0 0
s 3.000000000 _2_ AGT  --- 8 tcp 40 [0 0 0 0] ------- [2:1 1:0 32 0] [0 0] 0 0
r 3.000000000 _2_ RTR  --- 8 tcp 40 [0 0 0 0] ------- [2:1 1:0 32 0] [0 0] 0 0
s 3.000000000 _2_ RTR  --- 8 tcp 60 [0 0 0 0] ------- [2:1 1:0 32 1] [0 0] 0 0
s 3.000000000 _2_ AGT  --- 9 tcp 40 [0 0 0 0] ------- [2:2 3:0 32 0] [0 0] 0 0
r 3.000000000 _2_ RTR  --- 9 tcp 40 [0 0 0 0] ------- [2:2 3:0 32 0] [0 0] 0 0
s 3.000000000 _2_ RTR  --- 9 tcp 60 [0 0 0 0] ------- [2:2 3:0 32 3] [0 0] 0 0
s 3.000000000 _3_ AGT  --- 10 tcp 40 [0 0 0 0] ------- [3:1 4:0 32 0] [0 0] 0 0
r 3.000000000 _3_ RTR  --- 10 tcp 40 [0 0 0 0] ------- [3:1 4:0 32 0] [0 0] 0 0
s 3.000000000 _3_ RTR  --- 10 tcp 60 [0 0 0 0] ------- [3:1 4:0 32 4] [0 0] 0 0
s 3.000000000 _4_ AGT  --- 11 tcp 40 [0 0 0 0] ------- [4:1 5:0 32 0] [0 0] 0 0
r 3.000000000 _4_ RTR  --- 11 tcp 40 [0 0 0 0] ------- [4:1 5:0 32 0] [0 0] 0 0
s 3.000000000 _4_ RTR  --- 11 tcp 60 [0 0 0 0] ------- [4:1 5:0 32 5] [0 0] 0 0
s 3.000000000 _4_ AGT  --- 12 tcp 40 [0 0 0 0] ------- [4:2 6:0 32 0] [0 0] 0 0
r 3.000000000 _4_ RTR  --- 12 tcp 40 [0 0 0 0] ------- [4:2 6:0 32 0] [0 0] 0 0
s 3.000000000 _4_ RTR  --- 12 tcp 60 [0 0 0 0] ------- [4:2 6:0 32 6] [0 0] 0 0
s 3.000115000 _3_ MAC  --- 0 ARP 86 [0 ffffffff 3 806] ------- [REQUEST 3/3 0/4]
r 3.000803333 _2_ MAC  --- 0 ARP 28 [0 ffffffff 3 806] ------- [REQUEST 3/3 0/4]
r 3.000803333 _4_ MAC  --- 0 ARP 28 [0 ffffffff 3 806] ------- [REQUEST 3/3 0/4]
r 3.000803747 _5_ MAC  --- 0 ARP 28 [0 ffffffff 3 806] ------- [REQUEST 3/3 0/4]
r 3.000803747 _6_ MAC  --- 0 ARP 28 [0 ffffffff 3 806] ------- [REQUEST 3/3 0/4]
s 3.000913333 _4_ MAC  --- 0 ARP 86 [0 ffffffff 4 806] ------- [REQUEST 4/4 0/5]
r 3.001601667 _3_ MAC  --- 0 ARP 28 [0 ffffffff 4 806] ------- [REQUEST 4/4 0/5]
r 3.001601807 _5_ MAC  --- 0 ARP 28 [0 ffffffff 4 806] ------- [REQUEST 4/4 0/5]
r 3.001601807 _6_ MAC  --- 0 ARP 28 [0 ffffffff 4 806] ------- [REQUEST 4/4 0/5]
r 3.001602000 _2_ MAC  --- 0 ARP 28 [0 ffffffff 4 806] ------- [REQUEST 4/4 0/5]
s 3.001931667 _3_ MAC  --- 0 RTS 44 [62e 4 3 0] 
r 3.002284000 _4_ MAC  --- 0 RTS 44 [62e 4 3 0] 
s 3.002294000 _4_ MAC  --- 0 CTS 38 [4f4 3 0 0] 
r 3.002598333 _3_ MAC  --- 0 CTS 38 [4f4 3 0 0] 
s 3.002608333 _3_ MAC  --- 10 tcp 118 [13a 4 3 800] ------- [3:1 4:0 32 4] [0 0] 0 0
r 3.003552667 _4_ MAC  --- 10 tcp 60 [13a 4 3 800] ------- [3:1 4:0 32 4] [0 0] 1 0
s 3.003562667 _4_ MAC  --- 0 ACK 38 [0 3 0 0] 
r 3.003577667 _4_ AGT  --- 10 tcp 60 [13a 4 3 800] ------- [3:1 4:0 32 4] [0 0] 1 0
s 3.003577667 _4_ AGT  --- 13 ack 40 [0 0 0 0] ------- [4:0 3:1 32 0] [0 0] 0 0
r 3.003577667 _4_ RTR  --- 13 ack 40 [0 0 0 0] ------- [4:0 3:1 32 0] [0 0] 0 0
s 3.003577667 _4_ RTR  --- 13 ack 60 [0 0 0 0] ------- [4:0 3:1 32 3] [0 0] 0 0
r 3.003867000 _3_ MAC  --- 0 ACK 38 [0 3 0 0] 
s 3.003937140 _5_ MAC  --- 0 RTS 44 [52e 4 5 0] 
r 3.004289614 _4_ MAC  --- 0 RTS 44 [52e 4 5 0] 
s 3.004299614 _4_ MAC  --- 0 CTS 38 [3f4 5 0 0] 
r 3.004604088 _5_ MAC  --- 0 CTS 38 [3f4 5 0 0] 
s 3.004614088 _5_ MAC  --- 0 ARP 86 [13a 4 5 806] ------- [REPLY 5/5 4/4]
r 3.005302562 _4_ MAC  --- 0 ARP 28 [13a 4 5 806] ------- [REPLY 5/5 4/4]
s 3.005312562 _4_ MAC  --- 0 ACK 38 [0 5 0 0] 
r 3.005617036 _5_ MAC  --- 0 ACK 38 [0 5 0 0] 
s 3.005866562 _4_ MAC  --- 0 ARP 86 [0 ffffffff 4 806] ------- [REQUEST 4/4 0/6]
r 3.006554895 _3_ MAC  --- 0 ARP 28 [0 ffffffff 4 806] ------- [REQUEST 4/4 0/6]
r 3.006555036 _5_ MAC  --- 0 ARP 28 [0 ffffffff 4 806] ------- [REQUEST 4/4 0/6]
r 3.006555036 _6_ MAC  --- 0 ARP 28 [0 ffffffff 4 806] ------- [REQUEST 4/4 0/6]
r 3.006555228 _2_ MAC  --- 0 ARP 28 [0 ffffffff 4 806] ------- [REQUEST 4/4 0/6]
s 3.006610036 _6_ MAC  --- 0 RTS 44 [52e 4 6 0] 
r 3.006962509 _4_ MAC  --- 0 RTS 44 [52e 4 6 0] 
s 3.006972509 _4_ MAC  --- 0 CTS 38 [3f4 6 0 0] 
r 3.007276983 _6_ MAC  --- 0 CTS 38 [3f4 6 0 0] 
s 3.007286983 _6_ MAC  --- 0 ARP 86 [13a 4 6 806] ------- [REPLY 6/6 4/4]
r 3.007975457 _4_ MAC  --- 0 ARP 28 [13a 4 6 806] ------- [REPLY 6/6 4/4]
s 3.007985457 _4_ MAC  --- 0 ACK 38 [0 6 0 0] 
r 3.008289931 _6_ MAC  --- 0 ACK 38 [0 6 0 0] 
s 3.008410038 _2_ MAC  --- 0 ARP 86 [0 ffffffff 2 806] ------- [REQUEST 2/2 0/1]
r 3.009098372 _3_ MAC  --- 0 ARP 28 [0 ffffffff 2 806] ------- [REQUEST 2/2 0/1]
r 3.009098641 _1_ MAC  --- 0 ARP 28 [0 ffffffff 2 806] ------- [REQUEST 2/2 0/1]
r 3.009098641 _0_ MAC  --- 0 ARP 28 [0 ffffffff 2 806] ------- [REQUEST 2/2 0/1]
r 3.009098705 _4_ MAC  --- 0 ARP 28 [0 ffffffff 2 806] ------- [REQUEST 2/2 0/1]
s 3.009288641 _0_ MAC  --- 0 ARP 86 [0 ffffffff 0 806] ------- [REQUEST 0/0 0/2]
r 3.009977244 _2_ MAC  --- 0 ARP 28 [0 ffffffff 0 806] ------- [REQUEST 0/0 0/2]
r 3.009977314 _1_ MAC  --- 0 ARP 28 [0 ffffffff 0 806] ------- [REQUEST 0/0 0/2]
s 3.010067314 _1_ MAC  --- 0 RTS 44 [52e 2 1 0] 
r 3.010419917 _2_ MAC  --- 0 RTS 44 [52e 2 1 0] 
s 3.010429917 _2_ MAC  --- 0 CTS 38 [3f4 1 0 0] 
r 3.010734520 _1_ MAC  --- 0 CTS 38 [3f4 1 0 0] 
s 3.010744520 _1_ MAC  --- 0 ARP 86 [13a 2 1 806] ------- [REPLY 1/1 2/2]
r 3.011433123 _2_ MAC  --- 0 ARP 28 [13a 2 1 806] ------- [REPLY 1/1 2/2]
s 3.011443123 _2_ MAC  --- 0 ACK 38 [0 1 0 0] 
r 3.011747725 _1_ MAC  --- 0 ACK 38 [0 1 0 0] 
s 3.011937123 _2_ MAC  --- 0 ARP 86 [0 ffffffff 2 806] ------- [REQUEST 2/2 0/3]
r 3.012625456 _3_ MAC  --- 0 ARP 28 [0 ffffffff 2 806] ------- [REQUEST 2/2 0/3]
r 3.012625725 _1_ MAC  --- 0 ARP 28 [0 ffffffff 2 806] ------- [REQUEST 2/2 0/3]
r 3.012625725 _0_ MAC  --- 0 ARP 28 [0 ffffffff 2 806] ------- [REQUEST 2/2 0/3]
r 3.012625789 _4_ MAC  --- 0 ARP 28 [0 ffffffff 2 806] ------- [REQUEST 2/2 0/3]
s 3.012680456 _3_ MAC  --- 0 RTS 44 [52e 2 3 0] 
r 3.013032789 _2_ MAC  --- 0 RTS 44 [52e 2 3 0] 
s 3.013042789 _2_ MAC  --- 0 CTS 38 [3f4 3 0 0] 
r 3.013347123 _3_ MAC  --- 0 CTS 38 [3f4 3 0 0] 
s 3.013357123 _3_ MAC  --- 0 ARP 86 [13a 2 3 806] ------- [REPLY 3/3 2/2]
r 3.014045456 _2_ MAC  --- 0 ARP 28 [13a 2 3 806] ------- [REPLY 3/3 2/2]
s 3.014055456 _2_ MAC  --- 0 ACK 38 [0 3 0 0] 
r 3.014359789 _3_ MAC  --- 0 ACK 38 [0 3 0 0] 
s 3.014500021 _0_ MAC  --- 0 RTS 44 [62e 2 0 0] 
r 3.014852624 _2_ MAC  --- 0 RTS 44 [62e 2 0 0] 
s 3.014862624 _2_ MAC  --- 0 CTS 38 [4f4 0 0 0] 
r 3.015167227 _0_ MAC  --- 0 CTS 38 [4f4 0 0 0] 
s 3.015177227 _0_ MAC  --- 7 tcp 118 [13a 2 0 800] ------- [0:0 2:0 32 2] [0 0] 0 0
r 3.016121830 _2_ MAC  --- 7 tcp 60 [13a 2 0 800] ------- [0:0 2:0 32 2] [0 0] 1 0
s 3.016131830 _2_ MAC  --- 0 ACK 38 [0 0 0 0] 
r 3.016146830 _2_ AGT  --- 7 tcp 60 [13a 2 0 800] ------- [0:0 2:0 32 2] [0 0] 1 0
s 3.016146830 _2_ AGT  --- 14 ack 40 [0 0 0 0] ------- [2:0 0:0 32 0] [0 0] 0 0
r 3.016146830 _2_ RTR  --- 14 ack 40 [0 0 0 0] ------- [2:0 0:0 32 0] [0 0] 0 0
s 3.016146830 _2_ RTR  --- 14 ack 60 [0 0 0 0] ------- [2:0 0:0 32 0] [0 0] 0 0
r 3.016436433 _0_ MAC  --- 0 ACK 38 [0 0 0 0] 
s 3.016656441 _4_ MAC  --- 0 RTS 44 [52e 3 4 0] 
r 3.017008775 _3_ MAC  --- 0 RTS 44 [52e 3 4 0] 
s 3.017018775 _3_ MAC  --- 0 CTS 38 [3f4 4 0 0] 
r 3.017323108 _4_ MAC  --- 0 CTS 38 [3f4 4 0 0] 
s 3.017333108 _4_ MAC  --- 0 ARP 86 [13a 3 4 806] ------- [REPLY 4/4 3/3]
r 3.018021441 _3_ MAC  --- 0 ARP 28 [13a 3 4 806] ------- [REPLY 4/4 3/3]
s 3.018031441 _3_ MAC  --- 0 ACK 38 [0 4 0 0] 
r 3.018335775 _4_ MAC  --- 0 ACK 38 [0 4 0 0] 
s 3.018445775 _2_ MAC  --- 0 RTS 44 [62e 3 2 0] 
r 3.018798108 _3_ MAC  --- 0 RTS 44 [62e 3 2 0] 
s 3.018808108 _3_ MAC  --- 0 CTS 38 [4f4 2 0 0] 
r 3.019112441 _2_ MAC  --- 0 CTS 38 [4f4 2 0 0] 
s 3.019122441 _2_ MAC  --- 9 tcp 118 [13a 3 2 800] ------- [2:2 3:0 32 3] [0 0] 0 0
r 3.020066775 _3_ MAC  --- 9 tcp 60 [13a 3 2 800] ------- [2:2 3:0 32 3] [0 0] 1 0
s 3.020076775 _3_ MAC  --- 0 ACK 38 [0 2 0 0] 
r 3.020091775 _3_ AGT  --- 9 tcp 60 [13a 3 2 800] ------- [2:2 3:0 32 3] [0 0] 1 0
s 3.020091775 _3_ AGT  --- 15 ack 40 [0 0 0 0] ------- [3:0 2:2 32 0] [0 0] 0 0
r 3.020091775 _3_ RTR  --- 15 ack 40 [0 0 0 0] ------- [3:0 2:2 32 0] [0 0] 0 0
s 3.020091775 _3_ RTR  --- 15 ack 60 [0 0 0 0] ------- [3:0 2:2 32 2] [0 0] 0 0
r 3.020381108 _2_ MAC  --- 0 ACK 38 [0 2 0 0] 
s 3.020450775 _3_ MAC  --- 0 RTS 44 [62e 2 3 0] 
r 3.020803108 _2_ MAC  --- 0 RTS 44 [62e 2 3 0] 
s 3.020813108 _2_ MAC  --- 0 CTS 38 [4f4 3 0 0] 
r 3.021117441 _3_ MAC  --- 0 CTS 38 [4f4 3 0 0] 
s 3.021127441 _3_ MAC  --- 15 ack 118 [13a 2 3 800] ------- [3:0 2:2 32 2] [0 0] 0 0
r 3.022071775 _2_ MAC  --- 15 ack 60 [13a 2 3 800] ------- [3:0 2:2 32 2] [0 0] 1 0
s 3.022081775 _2_ MAC  --- 0 ACK 38 [0 3 0 0] 
r 3.022096775 _2_ AGT  --- 15 ack 60 [13a 2 3 800] ------- [3:0 2:2 32 2] [0 0] 1 0
s 3.022096775 _2_ AGT  --- 16 tcp 1040 [0 0 0 0] ------- [2:2 3:0 32 0] [1 0] 0 0
r 3.022096775 _2_ RTR  --- 16 tcp 1040 [0 0 0 0] ------- [2:2 3:0 32 0] [1 0] 0 0
s 3.022096775 _2_ RTR  --- 16 tcp 1060 [0 0 0 0] ------- [2:2 3:0 32 3] [1 0] 0 0
s 3.022096775 _2_ AGT  --- 17 tcp 1040 [0 0 0 0] ------- [2:2 3:0 32 0] [2 0] 0 0
r 3.022096775 _2_ RTR  --- 17 tcp 1040 [0 0 0 0] ------- [2:2 3:0 32 0] [2 0] 0 0
s 3.022096775 _2_ RTR  --- 17 tcp 1060 [0 0 0 0] ------- [2:2 3:0 32 3] [2 0] 0 0
r 3.022386108 _3_ MAC  --- 0 ACK 38 [0 3 0 0] 
s 3.022636441 _4_ MAC  --- 0 RTS 44 [62e 3 4 0] 
r 3.022988775 _3_ MAC  --- 0 RTS 44 [62e 3 4 0] 
s 3.022998775 _3_ MAC  --- 0 CTS 38 [4f4 4 0 0] 
r 3.023303108 _4_ MAC  --- 0 CTS 38 [4f4 4 0 0] 
s 3.023313108 _4_ MAC  --- 13 ack 118 [13a 3 4 800] ------- [4:0 3:1 32 3] [0 0] 0 0
r 3.024257441 _3_ MAC  --- 13 ack 60 [13a 3 4 800] ------- [4:0 3:1 32 3] [0 0] 1 0
s 3.024267441 _3_ MAC  --- 0 ACK 38 [0 4 0 0] 
r 3.024282441 _3_ AGT  --- 13 ack 60 [13a 3 4 800] ------- [4:0 3:1 32 3] [0 0] 1 0
s 3.024282441 _3_ AGT  --- 18 tcp 1040 [0 0 0 0] ------- [3:1 4:0 32 0] [1 0] 0 0
r 3.024282441 _3_ RTR  --- 18 tcp 1040 [0 0 0 0] ------- [3:1 4:0 32 0] [1 0] 0 0
s 3.024282441 _3_ RTR  --- 18 tcp 1060 [0 0 0 0] ------- [3:1 4:0 32 4] [1 0] 0 0
s 3.024282441 _3_ AGT  --- 19 tcp 1040 [0 0 0 0] ------- [3:1 4:0 32 0] [2 0] 0 0
r 3.024282441 _3_ RTR  --- 19 tcp 1040 [0 0 0 0] ------- [3:1 4:0 32 0] [2 0] 0 0
s 3.024282441 _3_ RTR  --- 19 tcp 1060 [0 0 0 0] ------- [3:1 4:0 32 4] [2 0] 0 0
r 3.024571775 _4_ MAC  --- 0 ACK 38 [0 4 0 0] 
s 3.024661441 _3_ MAC  --- 0 RTS 44 [256e 4 3 0] 
r 3.025013775 _4_ MAC  --- 0 RTS 44 [256e 4 3 0] 
s 3.025023775 _4_ MAC  --- 0 CTS 38 [2434 3 0 0] 
r 3.025328108 _3_ MAC  --- 0 CTS 38 [2434 3 0 0] 
s 3.025338108 _3_ MAC  --- 18 tcp 1118 [13a 4 3 800] ------- [3:1 4:0 32 4] [1 0] 0 0
r 3.034282441 _4_ MAC  --- 18 tcp 1060 [13a 4 3 800] ------- [3:1 4:0 32 4] [1 0] 1 0
s 3.034292441 _4_ MAC  --- 0 ACK 38 [0 3 0 0] 
r 3.034307441 _4_ AGT  --- 18 tcp 1060 [13a 4 3 800] ------- [3:1 4:0 32 4] [1 0] 1 0
s 3.034307441 _4_ AGT  --- 20 ack 40 [0 0 0 0] ------- [4:0 3:1 32 0] [1 0] 0 0
r 3.034307441 _4_ RTR  --- 20 ack 40 [0 0 0 0] ------- [4:0 3:1 32 0] [1 0] 0 0
s 3.034307441 _4_ RTR  --- 20 ack 60 [0 0 0 0] ------- [4:0 3:1 32 3] [1 0] 0 0
r 3.034596775 _3_ MAC  --- 0 ACK 38 [0 3 0 0] 
s 3.034726441 _4_ MAC  --- 0 RTS 44 [62e 5 4 0] 
r 3.035078915 _5_ MAC  --- 0 RTS 44 [62e 5 4 0] 
s 3.035088915 _5_ MAC  --- 0 CTS 38 [4f4 4 0 0] 
r 3.035393389 _4_ MAC  --- 0 CTS 38 [4f4 4 0 0] 
s 3.035403389 _4_ MAC  --- 11 tcp 118 [13a 5 4 800] ------- [4:1 5:0 32 5] [0 0] 0 0
r 3.036347863 _5_ MAC  --- 11 tcp 60 [13a 5 4 800] ------- [4:1 5:0 32 5] [0 0] 1 0
s 3.036357863 _5_ MAC  --- 0 ACK 38 [0 4 0 0] 
r 3.036372863 _5_ AGT  --- 11 tcp 60 [13a 5 4 800] ------- [4:1 5:0 32 5] [0 0] 1 0
s 3.036372863 _5_ AGT  --- 21 ack 40 [0 0 0 0] ------- [5:0 4:1 32 0] [0 0] 0 0
r 3.036372863 _5_ RTR  --- 21 ack 40 [0 0 0 0] ------- [5:0 4:1 32 0] [0 0] 0 0
s 3.036372863 _5_ RTR  --- 21 ack 60 [0 0 0 0] ------- [5:0 4:1 32 4] [0 0] 0 0
r 3.036662336 _4_ MAC  --- 0 ACK 38 [0 4 0 0] 
s 3.036751863 _5_ MAC  --- 0 RTS 44 [62e 4 5 0] 
r 3.037104336 _4_ MAC  --- 0 RTS 44 [62e 4 5 0] 
s 3.037114336 _4_ MAC  --- 0 CTS 38 [4f4 5 0 0] 
r 3.037418810 _5_ MAC  --- 0 CTS 38 [4f4 5 0 0] 
s 3.037428810 _5_ MAC  --- 21 ack 118 [13a 4 5 800] ------- [5:0 4:1 32 4] [0 0] 0 0
r 3.038373284 _4_ MAC  --- 21 ack 60 [13a 4 5 800] ------- [5:0 4:1 32 4] [0 0] 1 0
s 3.038383284 _4_ MAC  --- 0 ACK 38 [0 5 0 0] 
r 3.038398284 _4_ AGT  --- 21 ack 60 [13a 4 5 800] ------- [5:0 4:1 32 4] [0 0] 1 0
s 3.038398284 _4_ AGT  --- 22 tcp 1040 [0 0 0 0] ------- [4:1 5:0 32 0] [1 0] 0 0
r 3.038398284 _4_ RTR  --- 22 tcp 1040 [0 0 0 0] ------- [4:1 5:0 32 0] [1 0] 0 0
s 3.038398284 _4_ RTR  --- 22 tcp 1060 [0 0 0 0] ------- [4:1 5:0 32 5] [1 0] 0 0
s 3.038398284 _4_ AGT  --- 23 tcp 1040 [0 0 0 0] ------- [4:1 5:0 32 0] [2 0] 0 0
r 3.038398284 _4_ RTR  --- 23 tcp 1040 [0 0 0 0] ------- [4:1 5:0 32 0] [2 0] 0 0
s 3.038398284 _4_ RTR  --- 23 tcp 1060 [0 0 0 0] ------- [4:1 5:0 32 5] [2 0] 0 0
r 3.038687758 _5_ MAC  --- 0 ACK 38 [0 5 0 0] 
s 3.038917617 _3_ MAC  --- 0 RTS 44 [256e 4 3 0] 
r 3.039269951 _4_ MAC  --- 0 RTS 44 [256e 4 3 0] 
s 3.039279951 _4_ MAC  --- 0 CTS 38 [2434 3 0 0] 
r 3.039584284 _3_ MAC  --- 0 CTS 38 [2434 3 0 0] 
s 3.039594284 _3_ MAC  --- 19 tcp 1118 [13a 4 3 800] ------- [3:1 4:0 32 4] [2 0] 0 0
r 3.048538617 _4_ MAC  --- 19 tcp 1060 [13a 4 3 800] ------- [3:1 4:0 32 4] [2 0] 1 0
s 3.048548617 _4_ MAC  --- 0 ACK 38 [0 3 0 0] 
r 3.048563617 _4_ AGT  --- 19 tcp 1060 [13a 4 3 800] ------- [3:1 4:0 32 4] [2 0] 1 0
s 3.048563617 _4_ AGT  --- 24 ack 40 [0 0 0 0] ------- [4:0 3:1 32 0] [2 0] 0 0
r 3.048563617 _4_ RTR  --- 24 ack 40 [0 0 0 0] ------- [4:0 3:1 32 0] [2 0] 0 0
s 3.048563617 _4_ RTR  --- 24 ack 60 [0 0 0 0] ------- [4:0 3:1 32 3] [2 0] 0 0
r 3.048852951 _3_ MAC  --- 0 ACK 38 [0 3 0 0] 
s 3.048923284 _2_ MAC  --- 0 RTS 44 [52e 0 2 0] 
r 3.049275887 _0_ MAC  --- 0 RTS 44 [52e 0 2 0] 
s 3.049285887 _0_ MAC  --- 0 CTS 38 [3f4 2 0 0] 
r 3.049590489 _2_ MAC  --- 0 CTS 38 [3f4 2 0 0] 
s 3.049600489 _2_ MAC  --- 0 ARP 86 [13a 0 2 806] ------- [REPLY 2/2 0/0]
r 3.050289092 _0_ MAC  --- 0 ARP 28 [13a 0 2 806] ------- [REPLY 2/2 0/0]
s 3.050299092 _0_ MAC  --- 0 ACK 38 [0 2 0 0] 
r 3.050603695 _2_ MAC  --- 0 ACK 38 [0 2 0 0] 
s 3.050753695 _2_ MAC  --- 0 RTS 44 [62e 1 2 0] 
r 3.051106298 _1_ MAC  --- 0 RTS 44 [62e 1 2 0] 
s 3.051116298 _1_ MAC  --- 0 CTS 38 [4f4 2 0 0] 
r 3.051420901 _2_ MAC  --- 0 CTS 38 [4f4 2 0 0] 
s 3.051430901 _2_ MAC  --- 8 tcp 118 [13a 1 2 800] ------- [2:1 1:0 32 1] [0 0] 0 0
r 3.052375503 _1_ MAC  --- 8 tcp 60 [13a 1 2 800] ------- [2:1 1:0 32 1] [0 0] 1 0
s 3.052385503 _1_ MAC  --- 0 ACK 38 [0 2 0 0] 
r 3.052400503 _1_ AGT  --- 8 tcp 60 [13a 1 2 800] ------- [2:1 1:0 32 1] [0 0] 1 0
s 3.052400503 _1_ AGT  --- 25 ack 40 [0 0 0 0] ------- [1:0 2:1 32 0] [0 0] 0 0
r 3.052400503 _1_ RTR  --- 25 ack 40 [0 0 0 0] ------- [1:0 2:1 32 0] [0 0] 0 0
s 3.052400503 _1_ RTR  --- 25 ack 60 [0 0 0 0] ------- [1:0 2:1 32 2] [0 0] 0 0
r 3.052690106 _2_ MAC  --- 0 ACK 38 [0 2 0 0] 
s 3.052819503 _1_ MAC  --- 0 RTS 44 [62e 2 1 0] 
r 3.053172106 _2_ MAC  --- 0 RTS 44 [62e 2 1 0] 
s 3.053182106 _2_ MAC  --- 0 CTS 38 [4f4 1 0 0] 
r 3.053486709 _1_ MAC  --- 0 CTS 38 [4f4 1 0 0] 
s 3.053496709 _1_ MAC  --- 25 ack 118 [13a 2 1 800] ------- [1:0 2:1 32 2] [0 0] 0 0
r 3.054441312 _2_ MAC  --- 25 ack 60 [13a 2 1 800] ------- [1:0 2:1 32 2] [0 0] 1 0
s 3.054451312 _2_ MAC  --- 0 ACK 38 [0 1 0 0] 
r 3.054466312 _2_ AGT  --- 25 ack 60 [13a 2 1 800] ------- [1:0 2:1 32 2] [0 0] 1 0
s 3.054466312 _2_ AGT  --- 26 tcp 1040 [0 0 0 0] ------- [2:1 1:0 32 0] [1 0] 0 0
r 3.054466312 _2_ RTR  --- 26 tcp 1040 [0 0 0 0] ------- [2:1 1:0 32 0] [1 0] 0 0
s 3.054466312 _2_ RTR  --- 26 tcp 1060 [0 0 0 0] ------- [2:1 1:0 32 1] [1 0] 0 0
s 3.054466312 _2_ AGT  --- 27 tcp 1040 [0 0 0 0] ------- [2:1 1:0 32 0] [2 0] 0 0
r 3.054466312 _2_ RTR  --- 27 tcp 1040 [0 0 0 0] ------- [2:1 1:0 32 0] [2 0] 0 0
s 3.054466312 _2_ RTR  --- 27 tcp 1060 [0 0 0 0] ------- [2:1 1:0 32 1] [2 0] 0 0
r 3.054755914 _1_ MAC  --- 0 ACK 38 [0 1 0 0] 
s 3.054985312 _2_ MAC  --- 0 RTS 44 [62e 0 2 0] 
r 3.055337914 _0_ MAC  --- 0 RTS 44 [62e 0 2 0] 
s 3.055347914 _0_ MAC  --- 0 CTS 38 [4f4 2 0 0] 
r 3.055652517 _2_ MAC  --- 0 CTS 38 [4f4 2 0 0] 
s 3.055662517 _2_ MAC  --- 14 ack 118 [13a 0 2 800] ------- [2:0 0:0 32 0] [0 0] 0 0
r 3.056607120 _0_ MAC  --- 14 ack 60 [13a 0 2 800] ------- [2:0 0:0 32 0] [0 0] 1 0
s 3.056617120 _0_ MAC  --- 0 ACK 38 [0 2 0 0] 
r 3.056632120 _0_ AGT  --- 14 ack 60 [13a 0 2 800] ------- [2:0 0:0 32 0] [0 0] 1 0
s 3.056632120 _0_ AGT  --- 28 tcp 1040 [0 0 0 0] ------- [0:0 2:0 32 0] [1 0] 0 0
r 3.056632120 _0_ RTR  --- 28 tcp 1040 [0 0 0 0] ------- [0:0 2:0 32 0] [1 0] 0 0
s 3.056632120 _0_ RTR  --- 28 tcp 1060 [0 0 0 0] ------- [0:0 2:0 32 2] [1 0] 0 0
s 3.056632120 _0_ AGT  --- 29 tcp 1040 [0 0 0 0] ------- [0:0 2:0 32 0] [2 0] 0 0
r 3.056632120 _0_ RTR  --- 29 tcp 1040 [0 0 0 0] ------- [0:0 2:0 32 0] [2 0] 0 0
s 3.056632120 _0_ RTR  --- 29 tcp 1060 [0 0 0 0] ------- [0:0 2:0 32 2] [2 0] 0 0
r 3.056921723 _2_ MAC  --- 0 ACK 38 [0 2 0 0] 
s 3.057031120 _0_ MAC  --- 0 RTS 44 [256e 2 0 0] 
r 3.057383723 _2_ MAC  --- 0 RTS 44 [256e 2 0 0] 
s 3.057393723 _2_ MAC  --- 0 CTS 38 [2434 0 0 0] 
r 3.057698326 _0_ MAC  --- 0 CTS 38 [2434 0 0 0] 
s 3.057708326 _0_ MAC  --- 28 tcp 1118 [13a 2 0 800] ------- [0:0 2:0 32 2] [1 0] 0 0
r 3.066652928 _2_ MAC  --- 28 tcp 1060 [13a 2 0 800] ------- [0:0 2:0 32 2] [1 0] 1 0
s 3.066662928 _2_ MAC  --- 0 ACK 38 [0 0 0 0] 
r 3.066677928 _2_ AGT  --- 28 tcp 1060 [13a 2 0 800] ------- [0:0 2:0 32 2] [1 0] 1 0
s 3.066677928 _2_ AGT  --- 30 ack 40 [0 0 0 0] ------- [2:0 0:0 32 0] [1 0] 0 0
r 3.066677928 _2_ RTR  --- 30 ack 40 [0 0 0 0] ------- [2:0 0:0 32 0] [1 0] 0 0
s 3.066677928 _2_ RTR  --- 30 ack 60 [0 0 0 0] ------- [2:0 0:0 32 0] [1 0] 0 0
r 3.066967531 _0_ MAC  --- 0 ACK 38 [0 0 0 0] 
s 3.067167540 _4_ MAC  --- 0 RTS 44 [62e 6 4 0] 
r 3.067520014 _6_ MAC  --- 0 RTS 44 [62e 6 4 0] 
s 3.067530014 _6_ MAC  --- 0 CTS 38 [4f4 4 0 0] 
r 3.067834487 _4_ MAC  --- 0 CTS 38 [4f4 4 0 0] 
s 3.067844487 _4_ MAC  --- 12 tcp 118 [13a 6 4 800] ------- [4:2 6:0 32 6] [0 0] 0 0
r 3.068788961 _6_ MAC  --- 12 tcp 60 [13a 6 4 800] ------- [4:2 6:0 32 6] [0 0] 1 0
s 3.068798961 _6_ MAC  --- 0 ACK 38 [0 4 0 0] 
r 3.068813961 _6_ AGT  --- 12 tcp 60 [13a 6 4 800] ------- [4:2 6:0 32 6] [0 0] 1 0
s 3.068813961 _6_ AGT  --- 31 ack 40 [0 0 0 0] ------- [6:0 4:2 32 0] [0 0] 0 0
r 3.068813961 _6_ RTR  --- 31 ack 40 [0 0 0 0] ------- [6:0 4:2 32 0] [0 0] 0 0
s 3.068813961 _6_ RTR  --- 31 ack 60 [0 0 0 0] ------- [6:0 4:2 32 4] [0 0] 0 0
r 3.069103435 _4_ MAC  --- 0 ACK 38 [0 4 0 0] 
s 3.069213435 _4_ MAC  --- 0 RTS 44 [62e 3 4 0] 
r 3.069565768 _3_ MAC  --- 0 RTS 44 [62e 3 4 0] 
s 3.069575768 _3_ MAC  --- 0 CTS 38 [4f4 4 0 0] 
r 3.069880102 _4_ MAC  --- 0 CTS 38 [4f4 4 0 0] 
s 3.069890102 _4_ MAC  --- 20 ack 118 [13a 3 4 800] ------- [4:0 3:1 32 3] [1 0] 0 0
r 3.070834435 _3_ MAC  --- 20 ack 60 [13a 3 4 800] ------- [4:0 3:1 32 3] [1 0] 1 0
s 3.070844435 _3_ MAC  --- 0 ACK 38 [0 4 0 0] 
r 3.070859435 _3_ AGT  --- 20 ack 60 [13a 3 4 800] ------- [4:0 3:1 32 3] [1 0] 1 0
s 3.070859435 _3_ AGT  --- 32 tcp 1040 [0 0 0 0] ------- [3:1 4:0 32 0] [3 0] 0 0
r 3.070859435 _3_ RTR  --- 32 tcp 1040 [0 0 0 0] ------- [3:1 4:0 32 0] [3 0] 0 0
s 3.070859435 _3_ RTR  --- 32 tcp 1060 [0 0 0 0] ------- [3:1 4:0 32 4] [3 0] 0 0
s 3.070859435 _3_ AGT  --- 33 tcp 1040 [0 0 0 0] ------- [3:1 4:0 32 0] [4 0] 0 0
r 3.070859435 _3_ RTR  --- 33 tcp 1040 [0 0 0 0] ------- [3:1 4:0 32 0] [4 0] 0 0
s 3.070859435 _3_ RTR  --- 33 tcp 1060 [0 0 0 0] ------- [3:1 4:0 32 4] [4 0] 0 0
r 3.071148768 _4_ MAC  --- 0 ACK 38 [0 4 0 0] 
s 3.071259182 _6_ MAC  --- 0 RTS 44 [62e 4 6 0] 
r 3.071611656 _4_ MAC  --- 0 RTS 44 [62e 4 6 0] 
s 3.071621656 _4_ MAC  --- 0 CTS 38 [4f4 6 0 0] 
r 3.071926129 _6_ MAC  --- 0 CTS 38 [4f4 6 0 0] 
s 3.071936129 _6_ MAC  --- 31 ack 118 [13a 4 6 800] ------- [6:0 4:2 32 4] [0 0] 0 0
r 3.072880603 _4_ MAC  --- 31 ack 60 [13a 4 6 800] ------- [6:0 4:2 32 4] [0 0] 1 0
s 3.072890603 _4_ MAC  --- 0 ACK 38 [0 6 0 0] 
r 3.072905603 _4_ AGT  --- 31 ack 60 [13a 4 6 800] ------- [6:0 4:2 32 4] [0 0] 1 0
s 3.072905603 _4_ AGT  --- 34 tcp 1040 [0 0 0 0] ------- [4:2 6:0 32 0] [1 0] 0 0
r 3.072905603 _4_ RTR  --- 34 tcp 1040 [0 0 0 0] ------- [4:2 6:0 32 0] [1 0] 0 0
s 3.072905603 _4_ RTR  --- 34 tcp 1060 [0 0 0 0] ------- [4:2 6:0 32 6] [1 0] 0 0
s 3.072905603 _4_ AGT  --- 35 tcp 1040 [0 0 0 0] ------- [4:2 6:0 32 0] [2 0] 0 0
r 3.072905603 _4_ RTR  --- 35 tcp 1040 [0 0 0 0] ------- [4:2 6:0 32 0] [2 0] 0 0
s 3.072905603 _4_ RTR  --- 35 tcp 1060 [0 0 0 0] ------- [4:2 6:0 32 6] [2 0] 0 0
r 3.073195077 _6_ MAC  --- 0 ACK 38 [0 6 0 0] 
s 3.073304603 _4_ MAC  --- 0 RTS 44 [256e 5 4 0] 
r 3.073657077 _5_ MAC  --- 0 RTS 44 [256e 5 4 0] 
s 3.073667077 _5_ MAC  --- 0 CTS 38 [2434 4 0 0] 
r 3.073971551 _4_ MAC  --- 0 CTS 38 [2434 4 0 0] 
s 3.073981551 _4_ MAC  --- 22 tcp 1118 [13a 5 4 800] ------- [4:1 5:0 32 5] [1 0] 0 0
r 3.082926024 _5_ MAC  --- 22 tcp 1060 [13a 5 4 800] ------- [4:1 5:0 32 5] [1 0] 1 0
s 3.082936024 _5_ MAC  --- 0 ACK 38 [0 4 0 0] 
r 3.082951024 _5_ AGT  --- 22 tcp 1060 [13a 5 4 800] ------- [4:1 5:0 32 5] [1 0] 1 0
s 3.082951024 _5_ AGT  --- 36 ack 40 [0 0 0 0] ------- [5:0 4:1 32 0] [1 0] 0 0
r 3.082951024 _5_ RTR  --- 36 ack 40 [0 0 0 0] ------- [5:0 4:1 32 0] [1 0] 0 0
s 3.082951024 _5_ RTR  --- 36 ack 60 [0 0 0 0] ------- [5:0 4:1 32 4] [1 0] 0 0
r 3.083240498 _4_ MAC  --- 0 ACK 38 [0 4 0 0] 
s 3.083730024 _5_ MAC  --- 0 RTS 44 [62e 4 5 0] 
r 3.084082498 _4_ MAC  --- 0 RTS 44 [62e 4 5 0] 
s 3.084092498 _4_ MAC  --- 0 CTS 38 [4f4 5 0 0] 
r 3.084396972 _5_ MAC  --- 0 CTS 38 [4f4 5 0 0] 
s 3.084406972 _5_ MAC  --- 36 ack 118 [13a 4 5 800] ------- [5:0 4:1 32 4] [1 0] 0 0
r 3.085351446 _4_ MAC  --- 36 ack 60 [13a 4 5 800] ------- [5:0 4:1 32 4] [1 0] 1 0
s 3.085361446 _4_ MAC  --- 0 ACK 38 [0 5 0 0] 
r 3.085376446 _4_ AGT  --- 36 ack 60 [13a 4 5 800] ------- [5:0 4:1 32 4] [1 0] 1 0
s 3.085376446 _4_ AGT  --- 37 tcp 1040 [0 0 0 0] ------- [4:1 5:0 32 0] [3 0] 0 0
r 3.085376446 _4_ RTR  --- 37 tcp 1040 [0 0 0 0] ------- [4:1 5:0 32 0] [3 0] 0 0
s 3.085376446 _4_ RTR  --- 37 tcp 1060 [0 0 0 0] ------- [4:1 5:0 32 5] [3 0] 0 0
s 3.085376446 _4_ AGT  --- 38 tcp 1040 [0 0 0 0] ------- [4:1 5:0 32 0] [4 0] 0 0
r 3.085376446 _4_ RTR  --- 38 tcp 1040 [0 0 0 0] ------- [4:1 5:0 32 0] [4 0] 0 0
s 3.085376446 _4_ RTR  --- 38 tcp 1060 [0 0 0 0] ------- [4:1 5:0 32 5] [4 0] 0 0
r 3.085665919 _5_ MAC  --- 0 ACK 38 [0 5 0 0] 
s 3.085755779 _3_ MAC  --- 0 RTS 44 [256e 4 3 0] 
r 3.086108112 _4_ MAC  --- 0 RTS 44 [256e 4 3 0] 
s 3.086118112 _4_ MAC  --- 0 CTS 38 [2434 3 0 0] 
r 3.086422446 _3_ MAC  --- 0 CTS 38 [2434 3 0 0] 
s 3.086432446 _3_ MAC  --- 32 tcp 1118 [13a 4 3 800] ------- [3:1 4:0 32 4] [3 0] 0 0
r 3.095376779 _4_ MAC  --- 32 tcp 1060 [13a 4 3 800] ------- [3:1 4:0 32 4] [3 0] 1 0
s 3.095386779 _4_ MAC  --- 0 ACK 38 [0 3 0 0] 
r 3.095401779 _4_ AGT  --- 32 tcp 1060 [13a 4 3 800] ------- [3:1 4:0 32 4] [3 0] 1 0
s 3.095401779 _4_ AGT  --- 39 ack 40 [0 0 0 0] ------- [4:0 3:1 32 0] [3 0] 0 0
r 3.095401779 _4_ RTR  --- 39 ack 40 [0 0 0 0] ------- [4:0 3:1 32 0] [3 0] 0 0
s 3.095401779 _4_ RTR  --- 39 ack 60 [0 0 0 0] ------- [4:0 3:1 32 3] [3 0] 0 0
r 3.095691112 _3_ MAC  --- 0 ACK 38 [0 3 0 0] 
s 3.095781446 _2_ MAC  --- 0 RTS 44 [256e 3 2 0] 
r 3.096133779 _3_ MAC  --- 0 RTS 44 [256e 3 2 0] 
s 3.096143779 _3_ MAC  --- 0 CTS 38 [2434 2 0 0] 
r 3.096448112 _2_ MAC  --- 0 CTS 38 [2434 2 0 0] 
s 3.096458112 _2_ MAC  --- 16 tcp 1118 [13a 3 2 800] ------- [2:2 3:0 32 3] [1 0] 0 0
r 3.105402446 _3_ MAC  --- 16 tcp 1060 [13a 3 2 800] ------- [2:2 3:0 32 3] [1 0] 1 0
s 3.105412446 _3_ MAC  --- 0 ACK 38 [0 2 0 0] 
r 3.105427446 _3_ AGT  --- 16 tcp 1060 [13a 3 2 800] ------- [2:2 3:0 32 3] [1 0] 1 0
s 3.105427446 _3_ AGT  --- 40 ack 40 [0 0 0 0] ------- [3:0 2:2 32 0] [1 0] 0 0
r 3.105427446 _3_ RTR  --- 40 ack 40 [0 0 0 0] ------- [3:0 2:2 32 0] [1 0] 0 0
s 3.105427446 _3_ RTR  --- 40 ack 60 [0 0 0 0] ------- [3:0 2:2 32 2] [1 0] 0 0
r 3.105716779 _2_ MAC  --- 0 ACK 38 [0 2 0 0] 
s 3.105786779 _4_ MAC  --- 0 RTS 44 [256e 5 4 0] 
r 3.106139253 _5_ MAC  --- 0 RTS 44 [256e 5 4 0] 
s 3.106149253 _5_ MAC  --- 0 CTS 38 [2434 4 0 0] 
r 3.106453727 _4_ MAC  --- 0 CTS 38 [2434 4 0 0] 
s 3.106463727 _4_ MAC  --- 23 tcp 1118 [13a 5 4 800] ------- [4:1 5:0 32 5] [2 0] 0 0
r 3.115408200 _5_ MAC  --- 23 tcp 1060 [13a 5 4 800] ------- [4:1 5:0 32 5] [2 0] 1 0
s 3.115418200 _5_ MAC  --- 0 ACK 38 [0 4 0 0] 
r 3.115433200 _5_ AGT  --- 23 tcp 1060 [13a 5 4 800] ------- [4:1 5:0 32 5] [2 0] 1 0